Title: * spicenetlist
Date: Tue Nov 30 14:32:10  2021
Plotname: Transient Analysis
Flags: real
No. Variables: 4
No. Points: 5345
Variables:
	0	time	time
	1	v(in)	voltage
	2	v(ref)	voltage
	3	v(out)	voltage
Values:
 0	1.000000000000000e+00
	4.259900795747186e+00
	2.052433046427151e+00
	2.599008493313907e-01

 1	1.000100000000000e+00
	4.256900795747198e+00
	2.052433046426490e+00
	2.599008493304575e-01

 2	1.000300000000000e+00
	4.250900795747246e+00
	2.052433046425174e+00
	2.599008493286024e-01

 3	1.000700000000000e+00
	4.238900795747487e+00
	2.052433046422875e+00
	2.599008493257488e-01

 4	1.001500000000000e+00
	4.214900795748537e+00
	2.052433046417570e+00
	2.599008493182342e-01

 5	1.002500000000000e+00
	4.184900795750922e+00
	2.052433046411448e+00
	2.599008493101402e-01

 6	1.003500000000000e+00
	4.154900795754494e+00
	2.052433046404861e+00
	2.599008493008598e-01

 7	1.004500000000000e+00
	4.124900795759253e+00
	2.052433046398445e+00
	2.599008492920143e-01

 8	1.005499999999999e+00
	4.094900795765198e+00
	2.052433046391882e+00
	2.599008492827922e-01

 9	1.006499999999999e+00
	4.064900795772328e+00
	2.052433046386118e+00
	2.599008492756145e-01

 10	1.007499999999999e+00
	4.034900795780643e+00
	2.052433046379733e+00
	2.599008492668474e-01

 11	1.008499999999999e+00
	4.004900795790139e+00
	2.052433046373359e+00
	2.599008492581109e-01

 12	1.009499999999999e+00
	3.974900795800817e+00
	2.052433046366836e+00
	2.599008492489928e-01

 13	1.010499999999999e+00
	3.944900795812674e+00
	2.052433046360323e+00
	2.599008492398998e-01

 14	1.011499999999999e+00
	3.914900795825711e+00
	2.052433046354295e+00
	2.599008492320463e-01

 15	1.012499999999999e+00
	3.884900795839925e+00
	2.052433046347327e+00
	2.599008492217929e-01

 16	1.013499999999999e+00
	3.854900795855315e+00
	2.052433046341475e+00
	2.599008492143874e-01

 17	1.014499999999998e+00
	3.824900795871881e+00
	2.052433046335477e+00
	2.599008492066071e-01

 18	1.015499999999998e+00
	3.794900795889622e+00
	2.052433046328852e+00
	2.599008491972322e-01

 19	1.016499999999998e+00
	3.764900795908536e+00
	2.052433046322713e+00
	2.599008491890934e-01

 20	1.017499999999998e+00
	3.734900795928621e+00
	2.052433046315949e+00
	2.599008491793601e-01

 21	1.018499999999998e+00
	3.704900795949877e+00
	2.052433046309669e+00
	2.599008491708618e-01

 22	1.019499999999998e+00
	3.674900795972302e+00
	2.052433046303237e+00
	2.599008491619764e-01

 23	1.020499999999998e+00
	3.644900795995895e+00
	2.052433046296973e+00
	2.599008491535203e-01

 24	1.021499999999998e+00
	3.614900796020656e+00
	2.052433046290401e+00
	2.599008491442761e-01

 25	1.022499999999998e+00
	3.584900796046582e+00
	2.052433046284468e+00
	2.599008491366657e-01

 26	1.023499999999997e+00
	3.554900796073674e+00
	2.052433046278070e+00
	2.599008491278673e-01

 27	1.024499999999997e+00
	3.524900796101929e+00
	2.052433046271678e+00
	2.599008491190843e-01

 28	1.025499999999997e+00
	3.494900796131347e+00
	2.052433046265295e+00
	2.599008491103232e-01

 29	1.026499999999997e+00
	3.464900796161926e+00
	2.052433046258919e+00
	2.599008491015795e-01

 30	1.027499999999997e+00
	3.434900796193666e+00
	2.052433046252707e+00
	2.599008490932569e-01

 31	1.028499999999997e+00
	3.404900796226564e+00
	2.052433046246663e+00
	2.599008490853597e-01

 32	1.029499999999997e+00
	3.374900796260621e+00
	2.052433046239990e+00
	2.599008490758601e-01

 33	1.030499999999997e+00
	3.344900796295834e+00
	2.052433046233799e+00
	2.599008490675904e-01

 34	1.031499999999997e+00
	3.314900796332203e+00
	2.052433046227299e+00
	2.599008490585322e-01

 35	1.032499999999996e+00
	3.284900796369727e+00
	2.052433046221123e+00
	2.599008490502968e-01

 36	1.033499999999996e+00
	3.254900796408403e+00
	2.052433046214792e+00
	2.599008490416701e-01

 37	1.034499999999996e+00
	3.224900796448231e+00
	2.052433046207994e+00
	2.599008490318501e-01

 38	1.035499999999996e+00
	3.194900796489211e+00
	2.052433046202149e+00
	2.599008490244645e-01

 39	1.036499999999996e+00
	3.164900796531340e+00
	2.052433046195995e+00
	2.599008490162882e-01

 40	1.037499999999996e+00
	3.134900796574619e+00
	2.052433046189372e+00
	2.599008490069150e-01

 41	1.038499999999996e+00
	3.104900796619044e+00
	2.052433046182912e+00
	2.599008489979580e-01

 42	1.039499999999996e+00
	3.074900796664616e+00
	2.052433046176616e+00
	2.599008489894202e-01

 43	1.040499999999996e+00
	3.044900796711333e+00
	2.052433046170483e+00
	2.599008489812974e-01

 44	1.041499999999995e+00
	3.014900796759195e+00
	2.052433046164196e+00
	2.599008489727812e-01

 45	1.042499999999995e+00
	2.984900796808199e+00
	2.052433046157757e+00
	2.599008489638786e-01

 46	1.043499999999995e+00
	2.954900796858345e+00
	2.052433046151161e+00
	2.599008489545742e-01

 47	1.044499999999995e+00
	2.924900796909630e+00
	2.052433046144731e+00
	2.599008489456934e-01

 48	1.045499999999995e+00
	2.894900796962056e+00
	2.052433046138463e+00
	2.599008489372248e-01

 49	1.046499999999995e+00
	2.864900797015620e+00
	2.052433046132197e+00
	2.599008489287653e-01

 50	1.047499999999995e+00
	2.834900797070321e+00
	2.052433046125777e+00
	2.599008489199106e-01

 51	1.048499999999995e+00
	2.804900797126159e+00
	2.052433046119678e+00
	2.599008489118756e-01

 52	1.049499999999995e+00
	2.774900797183131e+00
	2.052433046113107e+00
	2.599008489026357e-01

 53	1.050499999999994e+00
	2.744900797241237e+00
	2.052433046107016e+00
	2.599008488946192e-01

 54	1.051499999999994e+00
	2.714900797300477e+00
	2.052433046100925e+00
	2.599008488866053e-01

 55	1.052499999999994e+00
	2.684900797360848e+00
	2.052433046094365e+00
	2.599008488773936e-01

 56	1.053499999999994e+00
	2.654900797422350e+00
	2.052433046088121e+00
	2.599008488689925e-01

 57	1.054499999999994e+00
	2.624900797484981e+00
	2.052433046082506e+00
	2.599008488622124e-01

 58	1.055499999999994e+00
	2.594900797548744e+00
	2.052433046077349e+00
	2.599008488566433e-01

 59	1.056499999999994e+00
	2.564900797613644e+00
	2.052433046077967e+00
	2.599008488659854e-01

 60	1.057499999999994e+00
	2.534900797679709e+00
	2.052433046094291e+00
	2.599008489160157e-01

 61	1.058499999999994e+00
	2.504900797747036e+00
	2.052433046169743e+00
	2.599008491191072e-01

 62	1.059499999999993e+00
	2.474900797815979e+00
	2.052433046456172e+00
	2.599008498683710e-01

 63	1.060499999999993e+00
	2.444900797887807e+00
	2.052433047497837e+00
	2.599008525727508e-01

 64	1.061499999999993e+00
	2.414900797967062e+00
	2.052433051239425e+00
	2.599008622666001e-01

 65	1.062499999999993e+00
	2.384900798069987e+00
	2.052433064639483e+00
	2.599008969639550e-01

 66	1.063499999999993e+00
	2.354900798254696e+00
	2.052433112590200e+00
	2.599010211048012e-01

 67	1.064499999999993e+00
	2.324900798729076e+00
	2.052433284131653e+00
	2.599014651928205e-01

 68	1.065499999999993e+00
	2.294900800236752e+00
	2.052433897767984e+00
	2.599030537592535e-01

 69	1.066499999999993e+00
	2.264900805437686e+00
	2.052436092783259e+00
	2.599087361311937e-01

 70	1.067499999999993e+00
	2.234900823845915e+00
	2.052443943983770e+00
	2.599290608861464e-01

 71	1.068499999999992e+00
	2.204900889481961e+00
	2.052472020469009e+00
	2.600017422680595e-01

 72	1.069499999999992e+00
	2.174901123889148e+00
	2.052572352493130e+00
	2.602614524601076e-01

 73	1.070499999999992e+00
	2.144901960145128e+00
	2.052930147135890e+00
	2.611873732648736e-01

 74	1.071499999999992e+00
	2.114905004102062e+00
	2.054256874866276e+00
	2.646161770563381e-01

 75	1.072177622892695e+00
	2.094582027569988e+00
	2.057054233983568e+00
	2.718284031863009e-01

 76	1.072456649227578e+00
	2.086215550113176e+00
	2.059664812507497e+00
	2.785422259166581e-01

 77	1.072488639086705e+00
	2.085256493053744e+00
	2.060100415276497e+00
	2.796612412225415e-01

 78	1.072552618804959e+00
	2.083338463575232e+00
	2.061124460216767e+00
	2.822907024544129e-01

 79	1.072680578241466e+00
	2.079503129668458e+00
	2.064494805887116e+00
	2.909346386958207e-01

 80	1.072691028914898e+00
	2.079189948972191e+00
	2.064956487730614e+00
	2.921177505713624e-01

 81	1.072711930261763e+00
	2.078563619734458e+00
	2.066152995689529e+00
	2.951830154093835e-01

 82	1.072717155598479e+00
	2.078407051112001e+00
	2.066573606989205e+00
	2.962602292091747e-01

 83	1.072727606271911e+00
	2.078093928356191e+00
	2.067652919177625e+00
	2.990239706604190e-01

 84	1.072729838468826e+00
	2.078027052329116e+00
	2.067983206293693e+00
	2.998695697188396e-01

 85	1.072734302862657e+00
	2.077893305015751e+00
	2.068810314454674e+00
	3.019869547652263e-01

 86	1.072735418961114e+00
	2.077859870194289e+00
	2.069097077965381e+00
	3.027209979727035e-01

 87	1.072737651158030e+00
	2.077793002545998e+00
	2.069793248175294e+00
	3.045029500390461e-01

 88	1.072738209207258e+00
	2.077776286459923e+00
	2.070021767954245e+00
	3.050878541934074e-01

 89	1.072739325305716e+00
	2.077742855039554e+00
	2.070546609251616e+00
	3.064311806996185e-01

 90	1.072740808849373e+00
	2.077698420130001e+00
	2.071545395660419e+00
	3.089874745767127e-01

 91	1.072741645697068e+00
	2.077673356937876e+00
	2.072374365173448e+00
	3.111090907389575e-01

 92	1.072742310338044e+00
	2.077653452747394e+00
	2.073294681611427e+00
	3.134644644145059e-01

 93	1.072742833904667e+00
	2.077637774645412e+00
	2.074302057292837e+00
	3.160426316233178e-01

 94	1.072743264759727e+00
	2.077624873964431e+00
	2.075449011145905e+00
	3.189780067469252e-01

 95	1.072743628908382e+00
	2.077613971774564e+00
	2.076795366585809e+00
	3.224236976738022e-01

 96	1.072743941343773e+00
	2.077604619008576e+00
	2.078413528189599e+00
	3.265650018868573e-01

 97	1.072744210824681e+00
	2.077596553331933e+00
	2.080396354361763e+00
	3.316395504948948e-01

 98	1.072744482566107e+00
	2.077588421720243e+00
	2.083355644238645e+00
	3.392130161495674e-01

 99	1.072744758253436e+00
	2.077580174795446e+00
	2.088211552717816e+00
	3.516399019662073e-01

 100	1.072745028798096e+00
	2.077572086283754e+00
	2.096537796257686e+00
	3.729456310776504e-01

 101	1.072745295642174e+00
	2.077564116221798e+00
	2.111045831254200e+00
	4.100593731275965e-01

 102	1.072745613121567e+00
	2.077554651458607e+00
	2.139989087293385e+00
	4.840508145967182e-01

 103	1.072745817341881e+00
	2.077548577427435e+00
	2.165510898704377e+00
	5.492508539917491e-01

 104	1.072746094864879e+00
	2.077540346253490e+00
	2.205045248335429e+00
	6.502115628961193e-01

 105	1.072746348543846e+00
	2.077532846894920e+00
	2.241498247798888e+00
	7.432913243337467e-01

 106	1.072746625054092e+00
	2.077524699378236e+00
	2.280929710733219e+00
	8.439736814097637e-01

 107	1.072746948452942e+00
	2.077515205494853e+00
	2.326827116628145e+00
	9.611651953166862e-01

 108	1.072747434454769e+00
	2.077501009241067e+00
	2.395516057336823e+00
	1.136550980884119e+00

 109	1.072748317887734e+00
	2.077475421742055e+00
	2.519967882780981e+00
	1.454317980528801e+00

 110	1.072750084753665e+00
	2.077425087552271e+00
	2.768265903465172e+00
	2.088305601592553e+00

 111	1.072753618485526e+00
	2.077327775684288e+00
	3.263979356384581e+00
	3.354027301171884e+00

 112	1.072760685949248e+00
	2.077146555982009e+00
	4.253855744663766e+00
	5.881511712110189e+00

 113	1.072764870555924e+00
	2.077047672503925e+00
	4.839286388519064e+00
	7.376311308857782e+00

 114	1.072768145802894e+00
	2.076973448625046e+00
	5.012273436298327e+00
	7.818004909931338e+00

 115	1.072772540081475e+00
	2.076874842796736e+00
	5.013572475544885e+00
	7.821321790184778e+00

 116	1.072775285421968e+00
	2.076813241108865e+00
	5.013047475814089e+00
	7.819981290855277e+00

 117	1.072779286014831e+00
	2.076723471364136e+00
	5.013218569178684e+00
	7.820418149252585e+00

 118	1.072787287200555e+00
	2.076543931579506e+00
	5.013054118451779e+00
	7.819998251725968e+00

 119	1.072799411589795e+00
	2.076271868587401e+00
	5.013146584252018e+00
	7.820234347741189e+00

 120	1.072823660368273e+00
	2.075727739436616e+00
	5.013059533195957e+00
	7.820012077379722e+00

 121	1.072872157925230e+00
	2.074639467208774e+00
	5.013137057191770e+00
	7.820210021993921e+00

 122	1.072969153039144e+00
	2.072462869680701e+00
	5.013061713282202e+00
	7.820017643893768e+00

 123	1.073163143266972e+00
	2.068109460807123e+00
	5.013135143615967e+00
	7.820205136051166e+00

 124	1.073551123722628e+00
	2.059401790436254e+00
	5.013062810474070e+00
	7.820020445498765e+00

 125	1.074327084633940e+00
	2.041983039380967e+00
	5.013135851445700e+00
	7.820206943593252e+00

 126	1.075327084633940e+00
	2.019528363118569e+00
	5.013063792226633e+00
	7.820022952571240e+00

 127	1.076327084633940e+00
	1.997066146048282e+00
	5.013136366959486e+00
	7.820208260244558e+00

 128	1.077327084633940e+00
	1.974596397514337e+00
	5.013065723978634e+00
	7.820027885350957e+00

 129	1.078327084633940e+00
	1.952119125008410e+00
	5.013138270459928e+00
	7.820213120888751e+00

 130	1.079327084633940e+00
	1.929634336578066e+00
	5.013068040729804e+00
	7.820033801162147e+00

 131	1.080327084633940e+00
	1.907142039223244e+00
	5.013140185766540e+00
	7.820218011678282e+00

 132	1.081327084633940e+00
	1.884642240954089e+00
	5.013070351749661e+00
	7.820039702339636e+00

 133	1.082327084633939e+00
	1.862134948766012e+00
	5.013142103548222e+00
	7.820222908787741e+00

 134	1.083327084633939e+00
	1.839620170651073e+00
	5.013072662827299e+00
	7.820045603664909e+00

 135	1.084327084633939e+00
	1.817097913592359e+00
	5.013144023469561e+00
	7.820227811360707e+00

 136	1.085327084633939e+00
	1.794568185564181e+00
	5.013074973863683e+00
	7.820051504885090e+00

 137	1.086327084633939e+00
	1.772030993537443e+00
	5.013145945518161e+00
	7.820232719365529e+00

 138	1.087327084633939e+00
	1.749486345468753e+00
	5.013077284861055e+00
	7.820057406005910e+00

 139	1.088327084633939e+00
	1.726934248316844e+00
	5.013147869682038e+00
	7.820237632771604e+00

 140	1.089327084633939e+00
	1.704374710020670e+00
	5.013079595821216e+00
	7.820063307031970e+00

 141	1.090327084633939e+00
	1.681807737526807e+00
	5.013149795950875e+00
	7.820242551552589e+00

 142	1.091327084633938e+00
	1.659233338756598e+00
	5.013081906744575e+00
	7.820069207964305e+00

 143	1.092327084633938e+00
	1.636651520644478e+00
	5.013151724314186e+00
	7.820247475681711e+00

 144	1.093327084633938e+00
	1.614062291094223e+00
	5.013084217631918e+00
	7.820075108804924e+00

 145	1.094327084633938e+00
	1.591465657028140e+00
	5.013153654760615e+00
	7.820252405129973e+00

 146	1.095327084633938e+00
	1.568861626332486e+00
	5.013086528485029e+00
	7.820081009558388e+00

 147	1.096327084633938e+00
	1.546250205917455e+00
	5.013155587279397e+00
	7.820257339869892e+00

 148	1.097327084633938e+00
	1.523631403651825e+00
	5.013088839303999e+00
	7.820086910224919e+00

 149	1.098327084633938e+00
	1.501005226433697e+00
	5.013157521860888e+00
	7.820262279876841e+00

 150	1.099327084633938e+00
	1.478371682114413e+00
	5.013091150090439e+00
	7.820092810808635e+00

 151	1.100000000000000e+00
	1.463137078548990e+00
	5.013158771429642e+00
	7.820265470756690e+00

 152	1.100100000000000e+00
	1.463872787081825e+00
	5.013124862580325e+00
	7.820178890154228e+00

 153	1.100300000000000e+00
	1.465344056925159e+00
	5.013124491379740e+00
	7.820177942343179e+00

 154	1.100700000000000e+00
	1.468285713861068e+00
	5.013124545402876e+00
	7.820178080257843e+00

 155	1.101500000000000e+00
	1.474165498469597e+00
	5.013123832482457e+00
	7.820176259885555e+00

 156	1.102500000000000e+00
	1.481508616956259e+00
	5.013123921314929e+00
	7.820176486643529e+00

 157	1.103500000000000e+00
	1.488844395084834e+00
	5.013123142209766e+00
	7.820174497267446e+00

 158	1.104500000000000e+00
	1.496172840189963e+00
	5.013123229413927e+00
	7.820174719867923e+00

 159	1.105499999999999e+00
	1.503493959604795e+00
	5.013122453255827e+00
	7.820172738016792e+00

 160	1.106499999999999e+00
	1.510807760649342e+00
	5.013122538858259e+00
	7.820172956527641e+00

 161	1.107499999999999e+00
	1.518114250642077e+00
	5.013121765623564e+00
	7.820170982141061e+00

 162	1.108499999999999e+00
	1.525413436888395e+00
	5.013121849634773e+00
	7.820171196589112e+00

 163	1.109499999999999e+00
	1.532705326692135e+00
	5.013121079310141e+00
	7.820169229633010e+00

 164	1.110499999999999e+00
	1.539989927344105e+00
	5.013121161741097e+00
	7.820169440046270e+00

 165	1.111499999999999e+00
	1.547267246133539e+00
	5.013120394313748e+00
	7.820167480488021e+00

 166	1.112499999999999e+00
	1.554537290336684e+00
	5.013120475174213e+00
	7.820167686891411e+00

 167	1.113499999999999e+00
	1.561800067228202e+00
	5.013119710631830e+00
	7.820165734699565e+00

 168	1.114499999999998e+00
	1.569055584069809e+00
	5.013119789932349e+00
	7.820165937120013e+00

 169	1.115499999999998e+00
	1.576303848121619e+00
	5.013119028261619e+00
	7.820163992260573e+00

 170	1.116499999999998e+00
	1.583544866630850e+00
	5.013119106012459e+00
	7.820164190724295e+00

 171	1.117499999999998e+00
	1.590778646843098e+00
	5.013118347200852e+00
	7.820162253165267e+00

 172	1.118499999999998e+00
	1.598005195991108e+00
	5.013118423412546e+00
	7.820162447699161e+00

 173	1.119499999999998e+00
	1.605224521305990e+00
	5.013117667446737e+00
	7.820160517406526e+00

 174	1.120499999999998e+00
	1.612436630006043e+00
	5.013117742129872e+00
	7.820160708037615e+00

 175	1.121499999999998e+00
	1.619641529307921e+00
	5.013116988998068e+00
	7.820158784981256e+00

 176	1.122499999999998e+00
	1.626839226415509e+00
	5.013117062162113e+00
	7.820158971733723e+00

 177	1.123499999999998e+00
	1.634029728531029e+00
	5.013116311851088e+00
	7.820157055879876e+00

 178	1.124499999999997e+00
	1.641213042843980e+00
	5.013116383506530e+00
	7.820157238780494e+00

 179	1.125499999999997e+00
	1.648389176542184e+00
	5.013115636004491e+00
	7.820155330099043e+00

 180	1.126499999999997e+00
	1.655558136800785e+00
	5.013115706160806e+00
	7.820155509172011e+00

 181	1.127499999999997e+00
	1.662719930793230e+00
	5.013114961454960e+00
	7.820153607630292e+00

 182	1.128499999999997e+00
	1.669874565680336e+00
	5.013115030123052e+00
	7.820153782903450e+00

 183	1.129499999999997e+00
	1.677022048621207e+00
	5.013114288200772e+00
	7.820151888469219e+00

 184	1.130499999999997e+00
	1.684162386762357e+00
	5.013114355389497e+00
	7.820152059965180e+00

 185	1.131499999999997e+00
	1.691295587248580e+00
	5.013113616238940e+00
	7.820150172608204e+00

 186	1.132499999999997e+00
	1.698421657212117e+00
	5.013113681959537e+00
	7.820150340355660e+00

 187	1.133499999999996e+00
	1.705540603783477e+00
	5.013112945567984e+00
	7.820148460043457e+00

 188	1.134499999999996e+00
	1.712652434080656e+00
	5.013113009829418e+00
	7.820148624065302e+00

 189	1.135499999999996e+00
	1.719757155219905e+00
	5.013112276184414e+00
	7.820146750766074e+00

 190	1.136499999999996e+00
	1.726854774305008e+00
	5.013112338997001e+00
	7.820146911088646e+00

 191	1.137499999999996e+00
	1.733945298437988e+00
	5.013111608086996e+00
	7.820145044772902e+00

 192	1.138499999999996e+00
	1.741028734708442e+00
	5.013111669459720e+00
	7.820145201419141e+00

 193	1.139499999999996e+00
	1.748105090204190e+00
	5.013110941272503e+00
	7.820143342055698e+00

 194	1.140499999999996e+00
	1.755174372000673e+00
	5.013111001214843e+00
	7.820143495049808e+00

 195	1.141499999999996e+00
	1.762236587171541e+00
	5.013110275738880e+00
	7.820141642609218e+00

 196	1.142499999999995e+00
	1.769291742778103e+00
	5.013110334261338e+00
	7.820141791978013e+00

 197	1.143499999999995e+00
	1.776339845879868e+00
	5.013109611484439e+00
	7.820139946429153e+00

 198	1.144499999999995e+00
	1.783380903524042e+00
	5.013109668595570e+00
	7.820140092194476e+00

 199	1.145499999999995e+00
	1.790414922756019e+00
	5.013108948505504e+00
	7.820138253506113e+00

 200	1.146499999999995e+00
	1.797441910608931e+00
	5.013109004215941e+00
	7.820138395695112e+00

 201	1.147499999999995e+00
	1.804461874114087e+00
	5.013108286800541e+00
	7.820136563836181e+00

 202	1.148499999999995e+00
	1.811474820290573e+00
	5.013108341119080e+00
	7.820136702471320e+00

 203	1.149499999999995e+00
	1.818480756155637e+00
	5.013107626367312e+00
	7.820134877413638e+00

 204	1.150499999999995e+00
	1.825479688714351e+00
	5.013107679303360e+00
	7.820135012518935e+00

 205	1.151499999999994e+00
	1.832471624969930e+00
	5.013106967202880e+00
	7.820133194230996e+00

 206	1.152499999999994e+00
	1.839456571913458e+00
	5.013107018766016e+00
	7.820133325830904e+00

 207	1.153499999999994e+00
	1.846434536534149e+00
	5.013106309305088e+00
	7.820131514282738e+00

 208	1.154499999999994e+00
	1.853405525809123e+00
	5.013106359504546e+00
	7.820131642400838e+00

 209	1.155499999999994e+00
	1.860369546713621e+00
	5.013105652672141e+00
	7.820129837564282e+00

 210	1.156499999999994e+00
	1.867326606210831e+00
	5.013105701517219e+00
	7.820129962224314e+00

 211	1.157499999999994e+00
	1.874276711262046e+00
	5.013104997301856e+00
	7.820128164070054e+00

 212	1.158499999999994e+00
	1.881219868816548e+00
	5.013105044801098e+00
	7.820128285293835e+00

 213	1.159499999999994e+00
	1.888156085821710e+00
	5.013104343190317e+00
	7.820126493790056e+00

 214	1.160499999999993e+00
	1.895085369212937e+00
	5.013104389353497e+00
	7.820126611602540e+00

 215	1.161499999999993e+00
	1.902007725923714e+00
	5.013103690336816e+00
	7.820124826722477e+00

 216	1.162499999999993e+00
	1.908923162875593e+00
	5.013103735172741e+00
	7.820124941146151e+00

 217	1.163499999999993e+00
	1.915831686988197e+00
	5.013103038738596e+00
	7.820123162860278e+00

 218	1.164499999999993e+00
	1.922733305169256e+00
	5.013103082256569e+00
	7.820123273918895e+00

 219	1.165499999999993e+00
	1.929628024324557e+00
	5.013102388392947e+00
	7.820121502196541e+00

 220	1.166499999999993e+00
	1.936515851348034e+00
	5.013102430602034e+00
	7.820121609913251e+00

 221	1.167499999999993e+00
	1.943396793131669e+00
	5.013101739298066e+00
	7.820119844726661e+00

 222	1.168499999999993e+00
	1.950270856555626e+00
	5.013101780206467e+00
	7.820119949122402e+00

 223	1.169499999999992e+00
	1.957138048498108e+00
	5.013101091451263e+00
	7.820118190443767e+00

 224	1.170499999999992e+00
	1.963998375825541e+00
	5.013101131068749e+00
	7.820118291543486e+00

 225	1.171499999999992e+00
	1.970851845402373e+00
	5.013100444850648e+00
	7.820116539343036e+00

 226	1.172499999999992e+00
	1.977698464081318e+00
	5.013100483185484e+00
	7.820116637167834e+00

 227	1.173499999999992e+00
	1.984538238713101e+00
	5.013099799493557e+00
	7.820114891417663e+00

 228	1.174499999999992e+00
	1.991371176136749e+00
	5.013099836554415e+00
	7.820114985989684e+00

 229	1.175499999999992e+00
	1.998197283189289e+00
	5.013099155377597e+00
	7.820113246661540e+00

 230	1.176499999999992e+00
	2.005016566696092e+00
	5.013099191173872e+00
	7.820113338004769e+00

 231	1.177499999999992e+00
	2.011829033480516e+00
	5.013098512500993e+00
	7.820111605070128e+00

 232	1.178499999999991e+00
	2.018634690354298e+00
	5.013098547040686e+00
	7.820111693205001e+00

 233	1.179499999999991e+00
	2.025433544127153e+00
	5.013097870860760e+00
	7.820109966635812e+00

 234	1.180499999999991e+00
	2.032225601597218e+00
	5.013097904153022e+00
	7.820110051585689e+00

 235	1.181499999999991e+00
	2.039010869560592e+00
	5.013097230455577e+00
	7.820108331355216e+00

 236	1.182499999999991e+00
	2.045789354801835e+00
	5.013097262508805e+00
	7.820108413141540e+00

 237	1.183499999999991e+00
	2.052561064103459e+00
	5.013096591282519e+00
	7.820106699220871e+00

 238	1.184499999999991e+00
	2.059326004236473e+00
	5.013096622104996e+00
	7.820106777864790e+00

 239	1.185499999999991e+00
	2.066084181969828e+00
	5.013095953338949e+00
	7.820105070226043e+00

 240	1.186499999999991e+00
	2.072835604061012e+00
	5.013095982939898e+00
	7.820105145751108e+00

 241	1.187499999999990e+00
	2.079580277265444e+00
	5.013095316623478e+00
	7.820103444367186e+00

 242	1.188499999999990e+00
	2.086318208327114e+00
	5.013095345010428e+00
	7.820103516792616e+00

 243	1.189499999999990e+00
	2.093049403987934e+00
	5.013094681133222e+00
	7.820101821636934e+00

 244	1.190499999999990e+00
	2.099773870978428e+00
	5.013094708314630e+00
	7.820101890984327e+00

 245	1.191499999999990e+00
	2.106491616027027e+00
	5.013094046866128e+00
	7.820100202030047e+00

 246	1.192499999999990e+00
	2.113202645850814e+00
	5.013094072850983e+00
	7.820100268322351e+00

 247	1.193499999999990e+00
	2.119906967164769e+00
	5.013093413819806e+00
	7.820098585540419e+00

 248	1.194499999999990e+00
	2.126604586672558e+00
	5.013093438616450e+00
	7.820098648798939e+00

 249	1.195499999999990e+00
	2.133295511075735e+00
	5.013092781992177e+00
	7.820096972162746e+00

 250	1.196499999999989e+00
	2.139979747064580e+00
	5.013092805608324e+00
	7.820097032407173e+00

 251	1.197499999999989e+00
	2.146657301327249e+00
	5.013092151380941e+00
	7.820095361891150e+00

 252	1.198499999999989e+00
	2.153328180540658e+00
	5.013092173824933e+00
	7.820095419142783e+00

 253	1.199499999999989e+00
	2.159992391379592e+00
	5.013091521983799e+00
	7.820093754719762e+00

 254	1.200499999999989e+00
	2.166649940507632e+00
	5.013091543263754e+00
	7.820093808999333e+00

 255	1.201499999999989e+00
	2.173300834586219e+00
	5.013090893798540e+00
	7.820092150642938e+00

 256	1.202499999999989e+00
	2.179945080265628e+00
	5.013090913922803e+00
	7.820092201971751e+00

 257	1.203499999999989e+00
	2.186582684193978e+00
	5.013090266822754e+00
	7.820090549654521e+00

 258	1.204499999999989e+00
	2.193213653008264e+00
	5.013090285799874e+00
	7.820090598054407e+00

 259	1.205499999999988e+00
	2.199837993343315e+00
	5.013089641054457e+00
	7.820088951749446e+00

 260	1.206499999999988e+00
	2.206455711822867e+00
	5.013089658891715e+00
	7.820088997238996e+00

 261	1.207499999999988e+00
	2.213066815068486e+00
	5.013089016491342e+00
	7.820087356921822e+00

 262	1.208499999999988e+00
	2.219671309690680e+00
	5.013089033196450e+00
	7.820087399520724e+00

 263	1.209499999999988e+00
	2.226269202297776e+00
	5.013088393131328e+00
	7.820085765166336e+00

 264	1.210499999999988e+00
	2.232860499487082e+00
	5.013088408712426e+00
	7.820085804895377e+00

 265	1.211499999999988e+00
	2.239445207853709e+00
	5.013087770972027e+00
	7.820084176476891e+00

 266	1.212499999999988e+00
	2.246023333981790e+00
	5.013087785437149e+00
	7.820084213356580e+00

 267	1.213499999999988e+00
	2.252594884453253e+00
	5.013087150010847e+00
	7.820082590846866e+00

 268	1.214499999999987e+00
	2.259159865839081e+00
	5.013087163368251e+00
	7.820082624898290e+00

 269	1.215499999999987e+00
	2.265718284708040e+00
	5.013086530246273e+00
	7.820081008272391e+00

 270	1.216499999999987e+00
	2.272270147617991e+00
	5.013086542503165e+00
	7.820081039513950e+00

 271	1.217499999999987e+00
	2.278815461124568e+00
	5.013085911675429e+00
	7.820079428746127e+00

 272	1.218499999999987e+00
	2.285354231772534e+00
	5.013085922839980e+00
	7.820079457198682e+00

 273	1.219499999999987e+00
	2.291886466104418e+00
	5.013085294296622e+00
	7.820077852263746e+00

 274	1.220499999999987e+00
	2.298412170651910e+00
	5.013085304376272e+00
	7.820077877946298e+00

 275	1.221499999999987e+00
	2.304931351944460e+00
	5.013084678107862e+00
	7.820076278820171e+00

 276	1.222499999999987e+00
	2.311444016500713e+00
	5.013084687109958e+00
	7.820076301751476e+00

 277	1.223499999999986e+00
	2.317950170837062e+00
	5.013084063106036e+00
	7.820074708407448e+00

 278	1.224499999999986e+00
	2.324449821459137e+00
	5.013084071038569e+00
	7.820074728607910e+00

 279	1.225499999999986e+00
	2.330942974870302e+00
	5.013083449289623e+00
	7.820073141021696e+00

 280	1.226499999999986e+00
	2.337429637563193e+00
	5.013083456160079e+00
	7.820073158510431e+00

 281	1.227499999999986e+00
	2.343909816028171e+00
	5.013082836655769e+00
	7.820071576655627e+00

 282	1.228499999999986e+00
	2.350383516744906e+00
	5.013082842471640e+00
	7.820071591451761e+00

 283	1.229499999999986e+00
	2.356850746190786e+00
	5.013082225202917e+00
	7.820070015305263e+00

 284	1.230499999999986e+00
	2.363311510832537e+00
	5.013082229972456e+00
	7.820070027429871e+00

 285	1.231499999999986e+00
	2.369765817134597e+00
	5.013081614929121e+00
	7.820068456965640e+00

 286	1.232499999999985e+00
	2.376213671550778e+00
	5.013081618658378e+00
	7.820068466434169e+00

 287	1.233499999999985e+00
	2.382655080532591e+00
	5.013081005831317e+00
	7.820066901628929e+00

 288	1.234499999999985e+00
	2.389090050520962e+00
	5.013081008528903e+00
	7.820066908463366e+00

 289	1.235499999999985e+00
	2.395518587954504e+00
	5.013080397908265e+00
	7.820065349291967e+00

 290	1.236499999999985e+00
	2.401940699261274e+00
	5.013080399581227e+00
	7.820065353510301e+00

 291	1.237499999999985e+00
	2.408356390867018e+00
	5.013079791157194e+00
	7.820063799947674e+00

 292	1.238499999999985e+00
	2.414765669186955e+00
	5.013079791812485e+00
	7.820063801567662e+00

 293	1.239499999999985e+00
	2.421168540633981e+00
	5.013079185576006e+00
	7.820062253590695e+00

 294	1.240499999999985e+00
	2.427565011610502e+00
	5.013079185221031e+00
	7.820062252631243e+00

 295	1.241499999999985e+00
	2.433955088516595e+00
	5.013078581162436e+00
	7.820060710215248e+00

 296	1.242499999999984e+00
	2.440338777741879e+00
	5.013078579804734e+00
	7.820060706695606e+00

 297	1.243499999999984e+00
	2.446716085673635e+00
	5.013077977914268e+00
	7.820059169815673e+00

 298	1.244499999999984e+00
	2.453087018688722e+00
	5.013077975560875e+00
	7.820059163753806e+00

 299	1.245499999999984e+00
	2.459451583161650e+00
	5.013077375829663e+00
	7.820057632387274e+00

 300	1.246499999999984e+00
	2.465809785456543e+00
	5.013077372488167e+00
	7.820057623802557e+00

 301	1.247499999999984e+00
	2.472161631935167e+00
	5.013076774906509e+00
	7.820056097924655e+00

 302	1.248499999999984e+00
	2.478507128948933e+00
	5.013076770583469e+00
	7.820056086833834e+00

 303	1.249499999999984e+00
	2.484846282846890e+00
	5.013076175142549e+00
	7.820054566422059e+00

 304	1.250499999999984e+00
	2.491179099967765e+00
	5.013076169844974e+00
	7.820054552843032e+00

 305	1.251499999999983e+00
	2.497505586647913e+00
	5.013075576535259e+00
	7.820053037873038e+00

 306	1.252499999999983e+00
	2.503825749213400e+00
	5.013075570270408e+00
	7.820053021824333e+00

 307	1.253499999999983e+00
	2.510139593987915e+00
	5.013074979083135e+00
	7.820051512273748e+00
